<?xml version="1.0" ?>
<VTKFile type="UnstructuredGrid" version="0.1" byte_order="LittleEndian">
<UnstructuredGrid>
<Piece NumberOfPoints="19283" NumberOfCells="1830">
<Points>
<DataArray type="Float32" Name="vertices" NumberOfComponents="3" format="ascii">0.70798237 -0.0218245 0.0 0.74148237 -0.0218245 0.0 0.74148237 -0.0218245 0.035 0.70798237 -0.0218245 0.035 0.7214823699999999 -0.0083245 0.0 0.74148237 -0.0083245 0.0 0.74148237 -0.0083245 0.035 0.7214823699999999 -0.0083245 0.035 0.7214823699999999 -0.0083245 0.0025 0.7134823699999999 -0.0163245 0.0025 0.7114823699999999 -0.0183245 0.004500000000000001 0.7114823699999999 -0.0183245 0.0305 0.7134823699999999 -0.0163245 0.0325 0.7214823699999999 -0.0083245 0.0325 0.7294823699999999 -0.0083245 0.0325 0.7314823699999999 -0.0083245 0.0305 0.7314823699999999 -0.0083245 0.004500000000000001 0.7294823699999999 -0.0083245 0.0025 0.7294823699999999 -0.0203245 0.0025 0.7134823699999999 -0.0203245 0.0025 0.7114823699999999 -0.0203245 0.004500000000000001 0.7114823699999999 -0.0203245 0.0305 0.7134823699999999 -0.0203245 0.0325 0.7294823699999999 -0.0203245 0.0325 0.7314823699999999 -0.0203245 0.0305 0.7314823699999999 -0.0203245 0.004500000000000001 0.21 0.0270645 0.0 0.21 0.0270645 0.035 0.21 -0.0270645 0.0 0.21 -0.0270645 0.035 0.2343 0.0270645 0.0 0.2343 0.0270645 0.035 0.2343 -0.0270645 0.0 0.2343 -0.0270645 0.035 0.2694367772512 0.002954647358158 0.0 0.38328 0.01167548819733 0.0 0.9864837000000001 0.01167548819733 0.0 0.9864837000000001 -0.01688451180267 0.0 0.7014823699999999 -0.0283245 0.0 0.65148237 -0.0283245 0.0 0.65148237 -0.0083245 0.0 0.2746114691943 -0.0083245 0.0 0.254651943128 -0.01305123359093 0.0 0.2694367772512 0.002954647358158 0.035 0.38328 0.01167548819733 0.035 0.9864837000000001 0.01167548819733 0.035 0.9864837000000001 -0.01688451180267 0.035 0.7014823699999999 -0.0283245 0.035 0.65148237 -0.0283245 0.035 0.65148237 -0.0083245 0.035 0.2746114691943 -0.0083245 0.035 0.254651943128 -0.01305123359093 0.035 0.7062768700000001 -0.02353 0.016705 0.70563 -0.02417687 0.01703784828995227 0.70563 -0.02417687 0.01796215171004773 0.72563 -0.02353 0.016705 0.7090042047360438 -0.0218245 0.0 0.7109236379537122 -0.0218245 0.0 0.7145289510496659 -0.0218245 0.0 0.7173857063210868 -0.0218245 0.0 0.7213008849723629 -0.0218245 0.0 0.7266666893412247 -0.0218245 0.0 0.7333443910691804 -0.0218245 0.0 0.74148237 -0.0218245 0.00875000000000003 0.74148237 -0.0218245 0.01750000000000006 0.74148237 -0.0218245 0.02625000000000003 0.710522089809941 -0.0218245 0.035 0.7140733791714508 -0.0218245 0.035 0.7190508784338737 -0.0218245 0.035 0.725726665885715 -0.0218245 0.035 0.7328231257217195 -0.0218245 0.035 0.70798237 -0.0218245 0.0003875067450303081 0.70798237 -0.0218245 0.0007750134900606163 0.70798237 -0.0218245 0.001162520235090924 0.70798237 -0.0218245 0.001550026980121233 0.70798237 -0.0218245 0.001937533725151541 0.70798237 -0.0218245 0.002325040470181849 0.70798237 -0.0218245 0.002712547215212158 0.70798237 -0.0218245 0.003104482166673343 0.70798237 -0.0218245 0.003605615538543578 0.70798237 -0.0218245 0.00430480664059425 0.70798237 -0.0218245 0.005280331796239303 0.70798237 -0.0218245 0.006642502530818034 0.70798237 -0.0218245 0.008536942569340934 0.70798237 -0.0218245 0.01073037697517285 0.70798237 -0.0218245 0.01278210158404553 0.70798237 -0.0218245 0.01428847711809306 0.70798237 -0.0218245 0.01536786765476474 0.70798237 -0.0218245 0.01614291250691539 0.70798237 -0.0218245 0.01710652050512396 0.70798237 -0.0218245 0.01747980069885938 0.70798237 -0.0218245 0.01785222045973223 0.70798237 -0.0218245 0.01825138738638387 0.70798237 -0.0218245 0.01953652815441455 0.70798237 -0.0218245 0.02057660452859304 0.70798237 -0.0218245 0.02203037419722465 0.70798237 -0.0218245 0.0240328279708404 0.70798237 -0.0218245 0.02622626237667232 0.70798237 -0.0218245 0.02841969678250424 0.70798237 -0.0218245 0.03061313118833615 0.70798237 -0.0218245 0.03280656559416808 0.7082555316853959 -0.021551338314604 0.0 0.708528693370792 -0.021278176629208 0.0 0.708801855056188 -0.021005014943812 0.0 0.7090750167415839 -0.020731853258416 0.0 0.70934817842698 -0.02045869157302 0.0 0.709621340112376 -0.020185529887624 0.0 0.7098945017977719 -0.019912368202228 0.0 0.710167663483168 -0.019639206516832 0.0 0.710440825168564 -0.019366044831436 0.0 0.7107139868539599 -0.01909288314604 0.0 0.710987148539356 -0.018819721460644 0.0 0.711260310224752 -0.018546559775248 0.0 0.7115334719101479 -0.018273398089852 0.0 0.711806633595544 -0.018000236404456 0.0 0.7121305155784816 -0.01767635442151839 0.0 0.7125819370502355 -0.01722493294976444 0.0 0.7132111210721334 -0.01659574892786662 0.0 0.7140880676761773 -0.01571880232382269 0.0 0.7153105515555133 -0.01449631844448674 0.0 0.716843775342332 -0.01296309465766791 0.0 0.7183899735615548 -0.01141689643844527 0.0 0.7199361717807773 -0.009870698219222632 0.0 0.7237045922222222 -0.0083245 0.0 0.7259268144444444 -0.0083245 0.0 0.7281490366666666 -0.0083245 0.0 0.7303712588888889 -0.0083245 0.0 0.732593481111111 -0.0083245 0.0 0.7348157033333333 -0.0083245 0.0 0.7370379255555555 -0.0083245 0.0 0.7392601477777778 -0.0083245 0.0 0.74148237 -0.01691012462993738 0.0 0.74148237 -0.01321021734612931 0.0 0.74148237 -0.01042466536766581 0.0 0.74148237 -0.0083245 0.002187500000000006 0.74148237 -0.0083245 0.004375000000000014 0.74148237 -0.0083245 0.006562500000000022 0.74148237 -0.0083245 0.00875000000000003 0.74148237 -0.0083245 0.01093750000000004 0.74148237 -0.0083245 0.01312500000000005 0.74148237 -0.0083245 0.01531250000000005 0.74148237 -0.0083245 0.01750000000000006 0.74148237 -0.0083245 0.01968750000000006 0.74148237 -0.0083245 0.02187500000000005 0.74148237 -0.0083245 0.02406250000000004 0.74148237 -0.0083245 0.02625000000000003 0.74148237 -0.0083245 0.02843750000000003 0.74148237 -0.0083245 0.03062500000000001 0.74148237 -0.0083245 0.03281250000000001 0.74148237 -0.01691012462993738 0.035 0.74148237 -0.01321021734612931 0.035 0.74148237 -0.01042466536766581 0.035 0.7094823699999999 -0.0203245 0.035 0.71098237 -0.01882449999999999 0.035 0.7124823699999999 -0.01732449999999999 0.035 0.71398237 -0.01582449999999998 0.035 0.7154823699999999 -0.01432449999999998 0.035 0.71698237 -0.01282449999999999 0.035 0.7184823699999999 -0.01132449999999999 0.035 0.71998237 -0.009824499999999998 0.035 0.7237045922222222 -0.0083245 0.035 0.7259268144444444 -0.0083245 0.035 0.7281490366666666 -0.0083245 0.035 0.7303712588888889 -0.0083245 0.035 0.732593481111111 -0.0083245 0.035 0.7348157033333333 -0.0083245 0.035 0.7370379255555555 -0.0083245 0.035 0.7392601477777778 -0.0083245 0.035 0.7214823699999999 -0.0083245 0.001250000000000001 0.7146170540270945 -0.01518981597290557 0.0025 0.715985831298303 -0.01382103870169697 0.0025 0.7173599659737273 -0.01244690402627273 0.0025 0.7187341006491516 -0.01107276935084848 0.0025 0.7201082353245758 -0.009698634675424237 0.0025 0.712762240128422 -0.01704462987157783 0.002634145512623973 0.7122672774474699 -0.01753959255253012 0.002911431434030693 0.7119386831275673 -0.01786818687243262 0.003228374725054938 0.7116510201747429 -0.01815584982525698 0.003696160577272355 0.7114823699999999 -0.01832449999999999 0.02829011182194698 0.7114823699999999 -0.01832449999999999 0.02608022364389396 0.7114823699999999 -0.01832449999999999 0.02387033546584094 0.7114823699999999 -0.01832449999999999 0.02166044728778792 0.7114823699999999 -0.01832449999999999 0.0194505591097349 0.7114823699999999 -0.01832449999999999 0.01724067093168188 0.7114823699999999 -0.01832449999999999 0.01503078275362886 0.7114823699999999 -0.01832449999999999 0.01282089457557583 0.7114823699999999 -0.01832449999999999 0.01061100639752283 0.7114823699999999 -0.01832449999999999 0.008401118219469834 0.7114823699999999 -0.01832449999999999 0.006218088151634793 0.7121902720839512 -0.01761659791604872 0.03202659194788341 0.7148157033333333 -0.0149911666666667 0.0325 0.7161490366666666 -0.01365783333333336 0.0325 0.7174823699999999 -0.01232450000000002 0.0325 0.7188157033333333 -0.01099116666666667 0.0325 0.7201490366666667 -0.00965783333333333 0.0325 0.7214823699999999 -0.0083245 0.03375 0.7234823699999999 -0.0083245 0.0325 0.7254823699999999 -0.0083245 0.0325 0.7274823699999999 -0.0083245 0.0325 0.7308965835623731 -0.0083245 0.0319142135623731 0.7314823699999999 -0.0083245 0.006666666666666671 0.7314823699999999 -0.0083245 0.008833333333333344 0.7314823699999999 -0.0083245 0.01100000000000002 0.7314823699999999 -0.0083245 0.01316666666666669 0.7314823699999999 -0.0083245 0.01533333333333337 0.7314823699999999 -0.0083245 0.01750000000000004 0.7314823699999999 -0.0083245 0.01966666666666671 0.7314823699999999 -0.0083245 0.02183333333333339 0.7314823699999999 -0.0083245 0.02400000000000004 0.7314823699999999 -0.0083245 0.0261666666666667 0.7314823699999999 -0.0083245 0.02833333333333335 0.7308965835623731 -0.0083245 0.003085786437626909 0.7234823699999999 -0.0083245 0.0025 0.7254823699999999 -0.0083245 0.0025 0.7274823699999999 -0.0083245 0.0025 0.7294823699999999 -0.0103906240139824 0.0025 0.7294823699999999 -0.01312003768582958 0.0025 0.7294823699999999 -0.01663845432815398 0.0025 0.7134823699999999 -0.01801783453144437 0.0025 0.7254823699999999 -0.0203245 0.0025 0.7214823699999999 -0.0203245 0.0025 0.7174823699999999 -0.0203245 0.0025 0.7114823699999999 -0.01922943796494302 0.004500000000000001 0.7120211411049382 -0.0203245 0.003134419494780198 0.7114823699999999 -0.0203245 0.008214282794464001 0.7114823699999999 -0.0203245 0.01192856561472891 0.7114823699999999 -0.0203245 0.01564284836871655 0.7114823699999999 -0.0203245 0.01935713106864909 0.7114823699999999 -0.0203245 0.02307141701022236 0.7114823699999999 -0.0203245 0.02678570858826369 0.7134823699999999 -0.01808385294298927 0.0325 0.7120211406286464 -0.0203245 0.03186557999556738 0.7294823699999999 -0.0103906240139824 0.0325 0.7294823699999999 -0.01312003768582958 0.0325 0.7294823699999999 -0.01663845432815398 0.0325 0.7254823699999999 -0.0203
[...]
<CellData>
<DataArray type="Float32" Name="cdata 0" NumberOfComponents="1" format="ascii">3.0 3.0 3.0 3.0 3.0 3.0 3.0 3.0 3.0 3.0 3.0 3.0 3.0 3.0 3.0 3.0 3.0 3.0 3.0 3.0 3.0 3.0 3.0 3.0 3.0 3.0 3.0 3.0 3.0 3.0 3.0 3.0 3.0 3.0 3.0 3.0 3.0 3.0 3.0 3.0 3.0 3.0 3.0 3.0 3.0 3.0 3.0 3.0 3.0 3.0 3.0 3.0 3.0 3.0 3.0 3.0 3.0 3.0 3.0 3.0 3.0 3.0 3.0 3.0 3.0 3.0 3.0 3.0 3.0 3.0 3.0 3.0 3.0 3.0 3.0 3.0 3.0 3.0 3.0 3.0 3.0 3.0 3.0 3.0 3.0 3.0 3.0 3.0 3.0 3.0 3.0 3.0 3.0 3.0 3.0 3.0 3.0 3.0 3.0 3.0 3.0 3.0 3.0 3.0 3.0 3.0 3.0 3.0 3.0 3.0 3.0 3.0 3.0 3.0 3.0 3.0 3.0 3.0 3.0 3.0 3.0 3.0 3.0 3.0 3.0 3.0 3.0 3.0 3.0 3.0 3.0 3.0 3.0 3.0 3.0 3.0 3.0 3.0 3.0 3.0 3.0 3.0 3.0 3.0 3.0 3.0 3.0 3.0 3.0 3.0 3.0 3.0 3.0 3.0 3.0 3.0 3.0 3.0 3.0 3.0 3.0 3.0 3.0 3.0 3.0 3.0 3.0 3.0 3.0 3.0 3.0 3.0 3.0 3.0 3.0 3.0 3.0 3.0 3.0 3.0 3.0 3.0 3.0 3.0 3.0 3.0 3.0 3.0 3.0 3.0 3.0 3.0 3.0 3.0 3.0 3.0 3.0 3.0 3.0 3.0 3.0 3.0 3.0 3.0 3.0 3.0 3.0 3.0 3.0 3.0 3.0 3.0 3.0 3.0 3.0 3.0 3.0 3.0 3.0 3.0 3.0 3.0 3.0 3.0 3.0 3.0 3.0 3.0 3.0 3.0 3.0 3.0 3.0 3.0 3.0 3.0 3.0 3.0 3.0 3.0 3.0 3.0 3.0 3.0 3.0 3.0 3.0 3.0 3.0 3.0 3.0 3.0 3.0 3.0 3.0 3.0 3.0 3.0 3.0 3.0 3.0 3.0 3.0 3.0 3.0 3.0 3.0 3.0 3.0 3.0 3.0 3.0 3.0 3.0 3.0 3.0 3.0 3.0 3.0 3.0 3.0 3.0 3.0 3.0 3.0 3.0 3.0 3.0 3.0 3.0 3.0 3.0 3.0 3.0 3.0 3.0 3.0 3.0 3.0 3.0 3.0 3.0 3.0 3.0 3.0 3.0 3.0 3.0 3.0 3.0 3.0 3.0 3.0 3.0 3.0 3.0 3.0 3.0 3.0 3.0 3.0 3.0 3.0 3.0 3.0 3.0 3.0 3.0 3.0 3.0 3.0 3.0 3.0 3.0 3.0 3.0 3.0 3.0 3.0 3.0 3.0 3.0 3.0 3.0 3.0 3.0 3.0 3.0 3.0 3.0 3.0 3.0 3.0 3.0 3.0 3.0 3.0 3.0 3.0 3.0 3.0 3.0 3.0 3.0 3.0 3.0 3.0 3.0 3.0 3.0 3.0 3.0 3.0 3.0 3.0 3.0 3.0 3.0 3.0 3.0 3.0 3.0 3.0 3.0 3.0 3.0 3.0 3.0 3.0 3.0 3.0 3.0 3.0 3.0 3.0 3.0 3.0 3.0 3.0 3.0 3.0 3.0 3.0 3.0 3.0 3.0 3.0 3.0 3.0 3.0 3.0 3.0 3.0 3.0 3.0 3.0 3.0 3.0 3.0 3.0 3.0 3.0 3.0 3.0 3.0 3.0 3.0 3.0 3.0 3.0 3.0 3.0 3.0 3.0 3.0 3.0 3.0 3.0 3.0 3.0 3.0 3.0 3.0 3.0 3.0 3.0 3.0 3.0 3.0 3.0 3.0 3.0 3.0 3.0 3.0 3.0 3.0 3.0 3.0 3.0 3.0 3.0 3.0 3.0 3.0 3.0 3.0 3.0 3.0 3.0 3.0 3.0 3.0 3.0 3.0 3.0 3.0 3.0 3.0 3.0 3.0 3.0 3.0 3.0 3.0 3.0 3.0 3.0 3.0 3.0 3.0 3.0 3.0 3.0 3.0 3.0 3.0 3.0 3.0 3.0 3.0 3.0 3.0 3.0 3.0 3.0 3.0 3.0 3.0 3.0 3.0 3.0 3.0 3.0 3.0 3.0 3.0 3.0 3.0 3.0 3.0 3.0 3.0 3.0 3.0 3.0 3.0 3.0 3.0 3.0 3.0 3.0 3.0 3.0 3.0 3.0 3.0 3.0 3.0 3.0 3.0 3.0 3.0 3.0 3.0 3.0 3.0 3.0 3.0 3.0 3.0 3.0 3.0 3.0 3.0 3.0 3.0 3.0 3.0 3.0 3.0 3.0 3.0 3.0 3.0 3.0 3.0 3.0 3.0 3.0 3.0 3.0 3.0 3.0 3.0 3.0 3.0 3.0 3.0 3.0 3.0 3.0 3.0 3.0 3.0 3.0 3.0 3.0 3.0 3.0 3.0 3.0 3.0 3.0 3.0 3.0 3.0 3.0 3.0 3.0 3.0 3.0 3.0 3.0 3.0 3.0 3.0 3.0 3.0 3.0 3.0 3.0 3.0 3.0 3.0 3.0 3.0 3.0 3.0 3.0 3.0 3.0 3.0 3.0 3.0 3.0 3.0 3.0 3.0 3.0 3.0 3.0 3.0 3.0 3.0 3.0 3.0 3.0 3.0 3.0 3.0 3.0 3.0 3.0 3.0 3.0 3.0 3.0 3.0 3.0 3.0 3.0 3.0 3.0 3.0 3.0 3.0 3.0 3.0 3.0 3.0 3.0 3.0 3.0 3.0 3.0 3.0 3.0 3.0 3.0 3.0 3.0 3.0 3.0 3.0 3.0 3.0 3.0 3.0 3.0 3.0 3.0 3.0 3.0 3.0 3.0 3.0 3.0 3.0 3.0 3.0 3.0 3.0 3.0 3.0 3.0 3.0 3.0 3.0 3.0 3.0 3.0 3.0 3.0 3.0 3.0 3.0 3.0 3.0 3.0 3.0 3.0 3.0 3.0 3.0 3.0 3.0 3.0 3.0 3.0 3.0 3.0 3.0 3.0 3.0 3.0 3.0 3.0 3.0 3.0 3.0 3.0 3.0 3.0 3.0 3.0 3.0 3.0 3.0 3.0 3.0 3.0 3.0 3.0 3.0 3.0 3.0 3.0 3.0 3.0 3.0 3.0 3.0 3.0 3.0 3.0 3.0 3.0 3.0 3.0 3.0 3.0 3.0 3.0 3.0 3.0 3.0 3.0 3.0 3.0 3.0 3.0 3.0 3.0 3.0 3.0 3.0 3.0 3.0 3.0 3.0 3.0 3.0 3.0 3.0 3.0 3.0 3.0 3.0 3.0 3.0 3.0 3.0 3.0 3.0 3.0 3.0 3.0 3.0 3.0 3.0 3.0 3.0 3.0 3.0 3.0 3.0 3.0 3.0 3.0 3.0 3.0 3.0 3.0 3.0 3.0 3.0 3.0 3.0 3.0 3.0 3.0 3.0 3.0 3.0 3.0 3.0 3.0 3.0 3.0 3.0 3.0 3.0 3.0 3.0 3.0 3.0 3.0 3.0 3.0 3.0 3.0 3.0 3.0 3.0 3.0 3.0 3.0 3.0 3.0 3.0 3.0 3.0 3.0 3.0 3.0 3.0 3.0 3.0 3.0 3.0 3.0 3.0 3.0 3.0 3.0 3.0 3.0 3.0 3.0 3.0 3.0 3.0 3.0 3.0 3.0 3.0 3.0 3.0 3.0 3.0 3.0 3.0 3.0 3.0 3.0 3.0 3.0 3.0 3.0 3.0 3.0 3.0 3.0 3.0 3.0 3.0 3.0 3.0 3.0 3.0 3.0 3.0 3.0 3.0 3.0 3.0 3.0 3.0 3.0 3.0 3.0 3.0 3.0 3.0 3.0 3.0 3.0 3.0 3.0 3.0 3.0 3.0 3.0 3.0 3.0 3.0 3.0 3.0 3.0 3.0 3.0 3.0 3.0 3.0 3.0 3.0 3.0 3.0 3.0 3.0 3.0 3.0 3.0 3.0 3.0 3.0 3.0 3.0 3.0 3.0 3.0 3.0 3.0 3.0 3.0 3.0 3.0 3.0 3.0 3.0 3.0 3.0 3.0 3.0 3.0 3.0 3.0 3.0 3.0 3.0 3.0 3.0 3.0 3.0 3.0 3.0 3.0 3.0 3.0 3.0 3.0 3.0 3.0 3.0 3.0 3.0 3.0 3.0 3.0 3.0 3.0 3.0 3.0 3.0 3.0 3.0 3.0 3.0 3.0 3.0 3.0 3.0 3.0 3.0 3.0 3.0 3.0 3.0 3.0 3.0 3.0 3.0 3.0 3.0 3.0 3.0 3.0 3.0 3.0 3.0 3.0 3.0 3.0 3.0 3.0 3.0 3.0 3.0 3.0 3.0 3.0 3.0 3.0 3.0 3.0 3.0 3.0 3.0 3.0 3.0 3.0 3.0 3.0 3.0 3.0 3.0 3.0 3.0 3.0 3.0 3.0 3.0 3.0 3.0 3.0 3.0 3.0 3.0 3.0 3.0 3.0 3.0 3.0 3.0 3.0 3.0 3.0 3.0 3.0 3.0 3.0 3.0 3.0 3.0 3.0 3.0 3.0 3.0 3.0 3.0 3.0 3.0 3.0 3.0 3.0 3.0 3.0 3.0 3.0 3.0 3.0 3.0 3.0 3.0 3.0 3.0 3.0 3.0 3.0 3.0 3.0 3.0 3.0 3.0 3.0 3.0 3.0 3.0 3.0 3.0 3.0 3.0 3.0 3.0 3.0 3.0 3.0 3.0 3.0 3.0 3.0 3.0 3.0 3.0 3.0 3.0 3.0 3.0 3.0 3.0 3.0 3.0 3.0 3.0 3.0 3.0 3.0 3.0 3.0 3.0 3.0 3.0 3.0 3.0 3.0 3.0 3.0 3.0 3.0 3.0 3.0 3.0 3.0 3.0 3.0 3.0 3.0 3.0 3.0 3.0 3.0 3.0 3.0 3.0 3.0 3.0 3.0 3.0 3.0 3.0 3.0 3.0 3.0 3.0 3.0 3.0 3.0 3.0 3.0 3.0 3.0 3.0 3.0 3.0 3.0 3.0 3.0 3.0 3.0 3.0 3.0 3.0 3.0 3.0 3.0 3.0 3.0 3.0 3.0 3.0 3.0 3.0 3.0 3.0 3.0 3.0 3.0 3.0 3.0 3.0 3.0 3.0 3.0 3.0 3.0 3.0 3.0 3.0 3.0 3.0 3.0 3.0 3.0 3.0 3.0 3.0 3.0 3.0 3.0 3.0 3.0 3.0 3.0 3.0 3.0 3.0 3.0 3.0 3.0 3.0 3.0 3.0 3.0 3.0 3.0 3.0 3.0 3.0 3.0 3.0 3.0 3.0 3.0 3.0 3.0 3.0 3.0 3.0 3.0 3.0 3.0 3.0 3.0 3.0 3.0 3.0 3.0 3.0 3.0 3.0 3.0 3.0 3.0 3.0 3.0 3.0 3.0 3.0 3.0 3.0 3.0 3.0 3.0 3.0 3.0 3.0 3.0 3.0 3.0 3.0 3.0 3.0 3.0 3.0 3.0 3.0 3.0 3.0 3.0 3.0 3.0 3.0 3.0 3.0 3.0 3.0 3.0 3.0 3.0 3.0 3.0 3.0 3.0 3.0 3.0 3.0 3.0 3.0 3.0 3.0 3.0 3.0 3.0 3.0 3.0 3.0 3.0 3.0 3.0 3.0 3.0 3.0 3.0 3.0 3.0 3.0 3.0 3.0 3.0 3.0 3.0 3.0 3.0 3.0 3.0 3.0 3.0 3.0 3.0 3.0 3.0 3.0 3.0 3.0 3.0 3.0 3.0 3.0 3.0 3.0 3.0 3.0 3.0 3.0 3.0 3.0 3.0 3.0 3.0 3.0 3.0 3.0 3.0 3.0 3.0 3.0 3.0 3.0 3.0 3.0 3.0 3.0 3.0 3.0 3.0 3.0 3.0 3.0 3.0 3.0 3.0 3.0 3.0 3.0 3.0 3.0 3.0 3.0 3.0 3.0 3.0 3.0 3.0 3.0 3.0 3.0 3.0 3.0 3.0 3.0 3.0 3.0 3.0 3.0 3.0 3.0 3.0 3.0 3.0 3.0 3.0 3.0 3.0 3.0 3.0 3.0 3.0 3.0 3.0 3.0 3.0 3.0 3.0 3.0 3.0 3.0 3.0 3.0 3.0 3.0 3.0 3.0 3.0 3.0 3.0 3.0 3.0 3.0 3.0 3.0 3.0 3.0 3.0 3.0 3.0 3.0 3.0 3.0 3.0 3.0 3.0 3.0 3.0 3.0 3.0 3.0 3.0 3.0 3.0 3.0 3.0 3.0 3.0 3.0 3.0 3.0 3.0 3.0 3.0 3.0 3.0 3.0 3.0 3.0 3.0 3.0 3.0 3.0 3.0 3.0 3.0 3.0 3.0 3.0 3.0 3.0 3.0 3.0 3.0 3.0 3.0 3.0 3.0 3.0 3.0 3.0 3.0 3.0 3.0 3.0 3.0 3.0 3.0 3.0 3.0 3.0 3.0 3.0 3.0 3.0 3.0 3.0 3.0 3.0 3.0 3.0 3.0 3.0 3.0 3.0 3.0 3.0 3.0 3.0 3.0 3.0 3.0 3.0 3.0 3.0 3.0 3.0 3.0 3.0 3.0 3.0 3.0 3.0 3.0 3.0 3.0 3.0 3.0 3.0 3.0 3.0 3.0 3.0 3.0 3.0 3.0 3.0 3.0 3.0 3.0 3.0 3.0 3.0 3.0 3.0 3.0 3.0 3.0 3.0 3.0 3.0 3.0 3.0 3.0 3.0 3.0 3.0 3.0 3.0 3.0 3.0 3.0 3.0 3.0 3.0 3.0 3.0 3.0 3.0 3.0 3.0 3.0 3.0 3.0 3.0 3.0 3.0 3.0 3.0 3.0 3.0 3.0 3.0 3.0 3.0 3.0 3.0 3.0 3.0 3.0 3.0 3.0 3.0 3.0 3.0 3.0 3.0 3.0 3.0 3.0 3.0 3.0 3.0 3.0 3.0 3.0 3.0 3.0 3.0 3.0 3.0 3.0 3.0 3.0 3.0 3.0 3.0 3.0 3.0 3.0 3.0 3.0 3.0 3.0 3.0 3.0 3.0 3.0 3.0 3.0 3.0 3.0 3.0 3.0 3.0 3.0 3.0 3.0 3.0 3.0 3.0 3.0 3.0 3.0 3.0 3.0 3.0 3.0 3.0 3.0 3.0 3.0 3.0 3.0 3.0 3.0 3.0 3.0 3.0 3.0 3.0 3.0 3.0 3.0 3.0 3.0 3.0 3.0 3.0 3.0 3.0 3.0 3.0 3.0 3.0 3.0 3.0 3.0 3.0 3.0 3.0 3.0 3.0 3.0 3.0 3.0 3.0 3.0 3.0 3.0 3.0 3.0 3.0 3.0 3.0 3.0 3.0 3.0 3.0 3.0 3.0 3.0 3.0 3.0 3.0 3.0 3.0 3.0 3.0 3.0 3.0 3.0 3.0 3.0 3.0 3.0 3.0 3.0 3.0 3.0 3.0 3.0 3.0 3.0 3.0 3.0 3.0 3.0 3.0 3.0 3.0 3.0 3.0 3.0 3.0 3.0 3.0 3.0 3.0 3.0 3.0 3.0 3.0 3.0 3.0 3.0 3.0 3.0 3.0 3.0 3.0 3.0 3.0 3.0 3.0 3.0 3.0 3.0 3.0 3.0 3.0 3.0 3.0 3.0 3.0 3.0 3.0 3.0 3.0 3.0 3.0 3.0 3.0 3.0 3.0 3.0 3.0 3.0 3.0 3.0 3.0 3.0 3.0 3.0 3.0 3.0 3.0 3.0 3.0 3.0 3.0 3.0 3.0 3.0 3.0 3.0 3.0 3.0 3.0 3.0 3.0 3.0 3.0 3.0 </DataArray>
</CellData>
</Piece>
</UnstructuredGrid>
</VTKFile>
