<?xml version="1.0" ?>
<VTKFile type="UnstructuredGrid" version="0.1" byte_order="LittleEndian">
<UnstructuredGrid>
<Piece NumberOfPoints="3839" NumberOfCells="629">
<Points>
<DataArray type="Float32" Name="vertices" NumberOfComponents="3" format="ascii">1.063391258760331 3.41254253957525 8.0 1.418419544426047 3.740064972161607 8.0 0.9572626546641275 3.883767270316978 8.0 1.218204432650466 3.809983984253838 7.65087129043083 -2.272258992723955 3.291935459571635 8.0 -2.652490639418556 2.994042986965442 8.0 -2.204392367626906 2.813698958455515 8.0 -2.468967019932911 3.147094192184848 7.595950732111486 -1.858892682913909 -3.541824105374112 8.0 -1.641651217096125 -3.647599386090365 7.623709898299484 -1.418419544056935 -3.740064972301593 8.0 -1.496278946724976 -3.324981724047625 8.0 -2.994042986965442 -2.652490639418556 8.0 -3.291935459571635 -2.272258992723955 8.0 -3.147094192414222 -2.468967019640536 7.595950732119567 -2.813698958455515 -2.204392367626906 8.0 -1.418419551939094 3.740064969312284 8.0 -1.67037413975386 3.634535765849822 7.610792053378914 -1.858892693010318 3.541824100075108 8.0 -1.519979057949936 3.377254915164246 8.0 -0.9572626596435913 3.88376726908965 8.0 -0.6826935064112707 3.588438048187894 8.0 -0.4821467221214649 3.970835496258631 8.0 -0.7754470723048168 3.924115421092235 7.562647350549387 -1.229284380056641 3.806423506777558 7.603574057917574 -1.077090953279137 3.392383338797988 8.0 -0.2289538839330707 -3.570567412721372 8.0 -0.4821467196120071 -3.970835496563334 8.0 -0.3670085435773525 -3.983127505985872 7.633409978386775 -0.6611461787471873 -3.628823211557158 8.0 -4.898587196589413e-16 -4.0 8.0 -4.898587196589413e-16 -4.0 7.5 0.2238165088525663 -3.511359898227374 8.0 0.0 4.0 8.0 -0.365500421070567 3.983266177673448 7.633582186261938 -0.2645373126753094 3.562184678071326 8.0 0.6696310091345387 3.65405816450151 8.0 0.7760893638801023 3.923988442805634 7.529798872804021 0.4821467198805988 3.970835496530721 8.0 0.3627388206636944 3.983518613987327 7.62901887618168 0.2429129655550214 3.533919402934717 8.0 1.503516863391271 3.250500361852094 8.0 -2.99404299838283 2.652490626530988 8.0 -2.536994224354506 2.531689819296767 8.0 -2.828427130833535 2.828427118658845 7.581749162106718 -2.275715707575187 2.687772631540261 7.516601378723146 -2.076423275639048 3.418839917338103 7.60763033848403 -3.291935467515493 2.272258981215291 8.0 -2.824922803962382 2.223895859187105 8.0 -3.137247830306461 2.481466512213574 7.590637305605821 -3.541824105374112 1.858892682913909 8.0 -3.647599386090365 1.641651217096125 7.623709898299481 -3.740064972301593 1.418419544056935 8.0 -3.30430122945554 1.467407834302952 8.0 -3.541824100075108 -1.858892693010318 8.0 -3.09196668696133 -1.820583325170835 8.0 -3.418839917108498 -2.076423276017093 7.607630338469701 -3.34739076124971 -1.510880247350812 8.0 -3.740064969312284 -1.418419551939094 8.0 -3.634535765225855 -1.670374141111539 7.610792055357948 -3.88376726908965 -0.957262659643591 8.0 -3.806423507166092 -1.229284378853563 7.603574059159582 -3.407186962728205 -1.1206559160192 8.0 -2.652490626530988 -2.99404299838283 8.0 -2.525239232650654 -2.585925363949189 8.0 -2.828427118658845 -2.828427130833535 7.581749162106718 -2.071980750995724 -3.421534124848559 7.576498089435294 -1.228829376970975 -3.806570419983469 7.603342624893903 -0.9572626543279366 -3.883767270399841 8.0 -0.7751721474567703 -3.924169739168689 7.562214246217698 -1.052007199972595 -3.392878440400962 8.0 -2.926279266789985 -2.024191791499776 7.548701728538333 -1.847592101088572 3.105042464173092 8.0 0.3655004212017282 -3.983266177661412 7.633582186151935 0.4821467221214644 -3.970835496258631 8.0 0.7754470741183963 -3.924115420733852 7.562647349528453 0.9572626596435908 -3.88376726908965 8.0 0.670817647952145 -3.518872736434365 8.0 2.468967017768869 -3.147094193882588 7.595950730069489 2.652490639418555 -2.994042986965442 8.0 2.272258992723955 -3.291935459571636 8.0 2.204392367626905 -2.813698958455515 8.0 1.418419551939094 -3.740064969312284 8.0 1.229284383824677 -3.806423505560671 7.603574048873163 1.119655245562712 -3.418955629096822 8.0 1.858892693010318 -3.541824100075108 8.0 1.855851938356791 -3.120742557384478 8.0 2.076423270167453 -3.418839920661262 7.607630331156666 1.535703129685348 -3.356365719575161 8.0 1.670374139857763 -3.634535765802069 7.610792046404876 2.272258981831772 3.291935467089967 8.0 2.466875485106651 3.148733926672723 7.581749162554638 2.259790665838176 2.901555820179145 8.0 2.652490627311451 2.9940429976914 8.0 2.504480507848323 2.564018513685202 8.0 2.828427119340497 2.828427130151883 7.666637762346352 2.994042987552515 2.652490638755887 8.0 1.658931443246455 3.639772859205397 7.57771231538008 1.858892683643623 3.541824104991128 8.0 1.90237832508146 3.070297786228505 8.0 2.069351251872928 3.423125092130281 7.666821220316266 2.828427131202601 -2.828427118289779 7.581749162110283 2.99404299838283 -2.652490626530988 8.0 2.519143422662609 -2.441562954734665 8.0 3.137247831340827 -2.481466510905856 7.590637307458778 2.339070484066148 -2.641568349962468 7.519961811205083 -1.398170466119582 3.011273332886895 8.0 -1.353511131624334 3.044141660660521 7.315147117146077 3.020094013938554 1.816823511292249 8.0 3.423125086278046 2.069351261553707 7.666836749467342 3.541824100262349 1.85889269265356 8.0 3.291935460018159 2.272258992077055 8.0 2.770025343037982 2.205157184663476 8.0 -0.0466776626085342 -3.388475218769599 7.4296392293855 0.0 4.0 7.5 0.051356068231451 3.444709029146827 7.483667027648355 1.248383347110304 3.158338890652486 7.43005716184418 -2.135496245507255 2.413835170895978 8.0 -3.0792974018772 1.865956932232932 8.0 -3.42153412470691 2.071980751229635 7.57649808863986 -3.806570419895105 1.228829377244703 7.603342626538828 -3.477316265129412 1.109067699349836 8.0 -3.883767270399841 0.9572626543279363 8.0 -3.08761343277912 1.084817888288857 8.0 -3.205751023841909 1.287173774815514 7.441545217612557 -3.469763946888662 -0.6247574625032878 8.0 -3.970835496258631 -0.4821467221214647 8.0 -3.924115421369383 -0.7754470709023223 7.562647351725852 -3.970835496563334 0.4821467196120068 8.0 -3.924169739206616 0.7751721472647746 7.562214247447416 -3.421105618130944 0.6795000433800104 8.0 -4.0 2.449293598294706e-16 8.0 -3.98326617768218 -0.3655004209753971 7.633582185488603 -3.662114852648425 -0.2212389044289619 8.0 -3.343355237485508 -0.8730888455556447 7.459555458695882 -2.272258981215291 -3.291935467515493 8.0 -2.279206166913047 -2.905751074156324 8.0 -2.481466510973085 -3.13724783128765 7.590637307097587 -1.844951048890692 -3.043970100355283 8.0 -1.260442686742074 -3.258254399958572 7.497153361906889 -0.5144244851510373 -3.238277788252113 8.0 -0.04233246037227888 -3.152336041908765 8.0 -2.955911087171626 -1.335849750614616 8.0 -3.010841687670709 -1.407823478026701 7.299792068856885 -2.308619477952797 -2.506032011023223 7.407334966090721 -1.731765753141864 2.600735116987083 8.0 -0.4982288400150879 3.381033821085671 7.411874475478204 -0.5803020060154092 3.149423916372319 8.0 1.425696219557823 -2.960241342007113 8.0 1.505961512773386 -3.175718578397998 7.543290935002737 1.843978306766508 -2.857676421315067 7.379905021474853 3.148733918119278 2.466875496024318 7.581749160939713 2.220620347503029 2.546232172159193 7.44218281864878 2.901989707682599 -2.234692255559377 8.0 3.291935467515492 -2.272258981215292 8.0 3.541824105374112 -1.858892682913909 8.0 3.297051420651985 -1.452215523928633 8.0 3.647599386090365 -1.641651217096126 7.623709906069181 3.740064972301593 -1.418419544056936 8.0 3.49576330155259 -1.034615435643478 8.0 3.806570419886713 -1.2288293772707 7.603342631126321 3.883767270399841 -0.9572626543279368 8.0 3.293726803296686 1.470054195547159 8.0 3.740064969468785 1.418419551526438 8.0 3.639807437326947 1.658855575141923 7.577572730150967 3.657584630070533 -0.674282928601651 8.0 3.92416973908414 -0.7751721478847862 7.562214249329177 3.970835496563334 -0.4821467196120073 8.0 2.661083413512777 -2.103929566785149 7.383418037343429 2.675847877764558 -2.973186528804224 7.198133225439149 -0.9890532672359446 2.962907626372807 8.0 1.589418851446613 2.852834192312991 8.0 2.78015321235824 1.666862564779661 7.494068446069067 1.213368332866634 2.889339268568955 8.0 0.601466718759858 3.306893174914448 8.0 -2.577077044405008 2.290231637522699 7.4406988858538 -2.67584787725033 2.973186529267025 7.198133226942982 -2.283083507846926 3.284437500729368 7.240866727357396 -1.856784350512041 2.102031599132593 8.0 -1.642964066099312 2.267053488908062 7.549052847208829 -2.380206895472746 2.079058127814169 8.0 -2.018077710450592 1.903314452830247 7.491708796108873 -2.838171745104121 1.745954723300158 7.349492415659798 -2.892157929821598 1.520627594140008 8.0 -3.98312750598447 0.3670085435925609 7.633409980107965 -3.571500032994637 0.1699335487302286 8.0 -4.0 2.449293598294706e-16 7.5 -3.088807805742305 -0.8969540612116111 8.0 -3.284437500821431 -2.283083507714484 7.240866726931643 -3.82740760469082 -1.162304188908772 7.204227777104543 -1.809405306423556 -3.567359308660438 7.320193811170351 -1.502185550918422 -3.70721439501574 7.204116014480325 -1.307124257790749 -2.906171001806173 8.0 -0.5714188761275175 -3.164462325982685 7.193934153099867 -0.322002533040189 -2.798191059335865 8.0 -2.624373962417277 -1.765336922887119 8.0 -2.973186528633311 -2.675847877954463 7.198133225490449 -2.341478771132659 -2.159149817157026 8.0 -1.874733210488775 2.606401903912379 7.22128709291942 -1.518913538755915 3.700392095681752 7.19650621133764 -0.05893066789801249 3.138693433499621 8.0 -0.936874080569317 2.79988941927103 7.508674436240481 -1.162304188374666 3.827407604853017 7.204227776598662 -1.937533129702544 3.499423577005942 7.215417177783133 -0.4055201610776237 3.979391083942313 7.244860346515592 0.9232698540206697 -3.336552995002152 7.462422545065324 1.852056351479361 -2.759253829351902 8.0 0.9132644894674475 -2.994092213385241 8.0 2.283083507434166 -3.284437501016287 7.240866726728051 1.967344887117878 2.58748433620065 8.0 1.25
[...]
<CellData>
<DataArray type="Float32" Name="cdata 0" NumberOfComponents="1" format="ascii">2.0 2.0 2.0 2.0 2.0 2.0 2.0 2.0 2.0 2.0 2.0 2.0 2.0 2.0 2.0 2.0 2.0 2.0 2.0 2.0 2.0 2.0 2.0 2.0 2.0 2.0 2.0 2.0 2.0 2.0 2.0 2.0 2.0 2.0 2.0 2.0 2.0 2.0 2.0 2.0 2.0 2.0 2.0 2.0 2.0 2.0 2.0 2.0 2.0 2.0 2.0 2.0 2.0 2.0 2.0 2.0 2.0 2.0 2.0 2.0 2.0 2.0 2.0 2.0 2.0 2.0 2.0 2.0 2.0 2.0 2.0 2.0 2.0 2.0 2.0 2.0 2.0 2.0 2.0 2.0 2.0 2.0 2.0 2.0 2.0 2.0 2.0 2.0 2.0 2.0 2.0 2.0 2.0 2.0 2.0 2.0 2.0 2.0 2.0 2.0 2.0 2.0 2.0 2.0 2.0 2.0 2.0 2.0 2.0 2.0 2.0 2.0 2.0 2.0 2.0 2.0 2.0 2.0 2.0 2.0 2.0 2.0 2.0 2.0 2.0 2.0 2.0 2.0 2.0 2.0 2.0 2.0 2.0 2.0 2.0 2.0 2.0 2.0 2.0 2.0 2.0 2.0 2.0 2.0 2.0 2.0 2.0 2.0 2.0 2.0 2.0 2.0 2.0 2.0 2.0 2.0 2.0 2.0 2.0 2.0 2.0 2.0 2.0 2.0 2.0 2.0 2.0 2.0 2.0 2.0 2.0 2.0 2.0 2.0 2.0 2.0 2.0 2.0 2.0 2.0 2.0 2.0 2.0 2.0 2.0 2.0 2.0 2.0 2.0 2.0 2.0 2.0 2.0 2.0 2.0 2.0 2.0 2.0 2.0 2.0 2.0 2.0 2.0 2.0 2.0 2.0 2.0 2.0 2.0 2.0 2.0 2.0 2.0 2.0 2.0 2.0 2.0 2.0 2.0 2.0 2.0 2.0 2.0 2.0 2.0 2.0 2.0 2.0 2.0 2.0 2.0 2.0 2.0 2.0 2.0 2.0 2.0 2.0 2.0 2.0 2.0 2.0 2.0 2.0 2.0 2.0 2.0 2.0 2.0 2.0 2.0 2.0 2.0 2.0 2.0 2.0 2.0 2.0 2.0 2.0 2.0 2.0 2.0 2.0 2.0 2.0 2.0 2.0 2.0 2.0 2.0 2.0 2.0 2.0 2.0 2.0 2.0 2.0 2.0 2.0 2.0 2.0 2.0 2.0 2.0 2.0 2.0 2.0 2.0 2.0 2.0 2.0 2.0 2.0 2.0 2.0 2.0 2.0 2.0 2.0 2.0 2.0 2.0 2.0 2.0 2.0 2.0 2.0 2.0 2.0 2.0 2.0 2.0 2.0 2.0 2.0 2.0 2.0 2.0 2.0 2.0 2.0 2.0 2.0 2.0 2.0 2.0 2.0 2.0 2.0 2.0 2.0 2.0 2.0 2.0 2.0 2.0 2.0 2.0 2.0 2.0 2.0 2.0 2.0 2.0 2.0 2.0 2.0 2.0 2.0 2.0 2.0 2.0 2.0 2.0 2.0 2.0 2.0 2.0 2.0 2.0 2.0 2.0 2.0 2.0 2.0 2.0 2.0 2.0 2.0 2.0 2.0 2.0 2.0 2.0 2.0 2.0 2.0 2.0 2.0 2.0 2.0 2.0 2.0 2.0 2.0 2.0 2.0 2.0 2.0 2.0 2.0 2.0 2.0 2.0 2.0 2.0 2.0 2.0 2.0 2.0 2.0 2.0 2.0 2.0 2.0 2.0 2.0 2.0 2.0 2.0 2.0 2.0 2.0 2.0 2.0 2.0 2.0 2.0 2.0 2.0 2.0 2.0 2.0 2.0 2.0 2.0 2.0 2.0 2.0 2.0 2.0 2.0 2.0 2.0 2.0 2.0 2.0 2.0 2.0 2.0 2.0 2.0 2.0 2.0 2.0 2.0 2.0 2.0 2.0 2.0 2.0 2.0 2.0 2.0 2.0 2.0 2.0 2.0 2.0 2.0 2.0 2.0 2.0 2.0 2.0 2.0 2.0 2.0 2.0 2.0 2.0 2.0 2.0 2.0 2.0 2.0 2.0 2.0 2.0 2.0 2.0 2.0 2.0 2.0 2.0 2.0 2.0 2.0 2.0 2.0 2.0 2.0 2.0 2.0 2.0 2.0 2.0 2.0 2.0 2.0 2.0 2.0 2.0 2.0 2.0 2.0 2.0 2.0 2.0 2.0 2.0 2.0 2.0 2.0 2.0 2.0 2.0 2.0 2.0 2.0 2.0 2.0 2.0 2.0 2.0 2.0 2.0 2.0 2.0 2.0 2.0 2.0 2.0 2.0 2.0 2.0 2.0 2.0 2.0 2.0 2.0 2.0 2.0 2.0 2.0 2.0 2.0 2.0 2.0 2.0 2.0 2.0 2.0 2.0 2.0 2.0 2.0 2.0 2.0 2.0 2.0 2.0 2.0 2.0 2.0 2.0 2.0 2.0 2.0 2.0 2.0 2.0 2.0 2.0 2.0 2.0 2.0 2.0 2.0 2.0 2.0 2.0 2.0 2.0 2.0 2.0 2.0 2.0 2.0 2.0 2.0 2.0 2.0 2.0 2.0 2.0 2.0 2.0 2.0 2.0 2.0 2.0 2.0 2.0 2.0 2.0 2.0 2.0 2.0 2.0 2.0 2.0 2.0 2.0 2.0 2.0 2.0 2.0 2.0 2.0 2.0 2.0 2.0 2.0 2.0 2.0 2.0 2.0 </DataArray>
</CellData>
</Piece>
</UnstructuredGrid>
</VTKFile>
